{"atomicNumber":102,"symbol":"No","name":"Nobelium","group":"Actinides","groupBlock":"actinoid","meltingPoint":1100,"atomicMass":{"mostStableIsotope":true,"v":259},"keyIsotopes":259,"ionisationEnergies":[641.63],"cas":"10028-14-5","period":7,"block":"f","stateAt20c":"Solid","electronicConfiguration":[86,{"shell":5,"subshell":"f","electrons":14},{"shell":7,"subshell":"s","electrons":2}],"appearance":"Nobelium is a radioactive metal. Only a few atoms have ever been made. Its half-life is only 58 minutes.","uses":"Nobelium has no uses outside research.","biologicalRole":"Nobelium has no known biological role. It is toxic due to its radioactivity.","naturalAbundance":"Nobelium is made by bombarding curium with carbon in a device called a cyclotron.","history":"This element’s history is one of controversy. In 1956, a team led by Georgy Flerov at the Institute of Atomic Energy, Moscow, synthesised element 102 by bombarding plutonium with oxygen and got atoms of element 102, isotope-252. However, they did not report their success.In 1957, the Nobel Institute of Physics in Stockholm announced isotope-253 which had been made by bombarding curium with carbon. Then in 1958, Albert Ghiorso at the Lawrence Berkeley Laboratory (LBL) claimed isotope-254, also made by bombarding curium with carbon. These claims were challenged by the Russians.In 1962-63, the Russian Joint Institute of Nuclear Research, based at Dubna, synthesised isotopes 252 to 256. Ghiorso still insisted his group were the first to discover element 102, and so began years of recrimination, finally ending in the International Union of Pure and Applied Chemists deciding in favour of the Russians being the discoverers.","atomicRadius":2.46,"covalentRadius":1.76,"oxidationStates":[3,2]}