{"atomicNumber":89,"symbol":"Ac","name":"Actinium","group":"Actinides","groupBlock":"actinoid","meltingPoint":1323,"boilingPoint":3473,"density":10,"atomicMass":{"mostStableIsotope":true,"v":227},"keyIsotopes":227,"ionisationEnergies":[498.83,1133.7],"cas":"7440-34-8","period":7,"block":"d","stateAt20c":"Solid","electronicConfiguration":[86,{"shell":6,"subshell":"d","electrons":1},{"shell":7,"subshell":"s","electrons":2}],"appearance":"Actinium is a soft, silvery-white radioactive metal. It glows blue in the dark because its intense radioactivity excites the air around it.","uses":"Actinium is a very powerful source of alpha rays, but is rarely used outside research.","biologicalRole":"Actinium has no known biological role. It is toxic due to its radioactivity.","naturalAbundance":"Actinium used for research purposes is made by the neutron bombardment of radium-226. Actinium also occurs naturally in uranium ores.","history":"This element was discovered in 1899 by André Debierne at Paris. He extracted it from the uranium ore pitchblende (uranium oxide, U3O8) in which it occurs in trace amounts. In 1902, Friedrich Otto Giesel independently extracted it from the same mineral and, unaware it was already known, gave it the named emanium.Actinium extracted from uranium ores is the isotope actinium-227 which has half-life of 21.7 years. It occurs naturally as one of the sequence of isotopes that originate with the radioactive decay of uranium-235. A tonne of pitchblende contains around 150 mg of actinium.","atomicRadius":2.47,"electronAffinity":33.77,"covalentRadius":2.01,"electronegativity":1.1,"oxidationStates":[3]}