{"atomicNumber":91,"symbol":"Pa","name":"Protactinium","group":"Actinides","groupBlock":"actinoid","meltingPoint":1845,"boilingPoint":4273,"density":15.4,"atomicMass":231.036,"keyIsotopes":231,"ionisationEnergies":[568.3],"cas":"7440-13-3","period":7,"block":"f","stateAt20c":"Solid","electronicConfiguration":[86,{"shell":5,"subshell":"f","electrons":2},{"shell":6,"subshell":"d","electrons":1},{"shell":7,"subshell":"s","electrons":2}],"appearance":"A silvery, radioactive metal.","uses":"Protactinium is little used outside of research.","biologicalRole":"Protactinium has no known biological role. It is toxic due to its radioactivity.","naturalAbundance":"Small amounts of protactinium are found naturally in uranium ores. It is also found in spent fuel rods from nuclear reactors, from which it is extracted.","history":"Mendeleev said there should be an element between thorium and uranium, but it evaded detection. Then, in 1900, William Crookes separated an intensely radioactive material from uranium, but did not identify it. In 1913, Kasimir Fajans and Otto Göhring showed that this new element decayed by beta-emission and it existed only fleetingly. We now know it is a member of the sequence of elements through which uranium decays. It was the isotope protactinium-234, which has a half-life of 6 hours 42 minutes.A longer-lived isotope was separated from the uranium ore pitchblende (uranium oxide, U3O8) in 1918 by Lise Meitner at the Kaiser-Wilhelm Institute in Berlin. This was the longer-lived isotope protactinium-231, also coming from uranium, and its half-life is 32,500 years.In 1934, Aristid von Grosse reduced protactinium oxide to protactinium metal by decomposing its iodide (PaF5) on a heated filament.","atomicRadius":2.43,"covalentRadius":1.84,"electronegativity":1.5,"oxidationStates":[5,4]}